107
Lattice="10.83 0.0 0.0 0.0 10.83 0.0 0.0 0.0 10.83" Properties=species:S:1:pos:R:3:forces:R:3:energy:R:1 user-data="_JSON [1, 2, 3]" energy=0.63 pbc="T T T"
Cu       0.01118738       1.77910407       1.80492327       0.00054915       0.00022540      -0.00266119       0.08400641
Cu       1.80553533      -0.01714403       1.80391865      -0.00073886      -0.00018250       0.00387437       0.08392559
Cu       1.80748247       1.77987751       0.01042063      -0.00427077      -0.00094535      -0.00332023       0.08417831
Cu       0.01108698      -0.01626546       3.62891702       0.00148230      -0.00238007      -0.00322069       0.01050519
Cu       0.01115649       1.78928047       5.42663714       0.00125018       0.00187234       0.00133716      -0.00453361
Cu       1.81664872      -0.01660514       5.42599147       0.00143739      -0.00150505       0.00035826      -0.00451146
Cu       1.81366914       1.78686171       3.61724178      -0.00025292      -0.00081487       0.00136209      -0.00352758
Cu       0.01167504      -0.01809126       7.22364129      -0.00240727       0.00170781      -0.00525882       0.01055492
Cu       0.01138423       1.77888637       9.04624506       0.00039760       0.00076115      -0.00118786       0.08403191
Cu       1.80534816      -0.01878479       9.04748101      -0.00183671       0.00197204      -0.00190596       0.08386247
Cu       1.81399923       1.78649662       7.23508739      -0.00424206      -0.00106605      -0.00494985      -0.00346643
Cu       0.01039566       3.60302613       0.00992742       0.00259876      -0.00484064       0.00249498       0.01048246
Cu       0.01055341       5.39589729       1.81794905       0.00283720       0.00629304      -0.00206332      -0.00445769
Cu       1.81534691       3.59105798       1.81271997      -0.00313812      -0.00069363       0.00448220      -0.00353204
Cu       1.81832995       5.39833983       0.01000651      -0.00077473       0.00000462      -0.00115919      -0.00462510
Cu       0.01077894       3.58915151       3.61723804       0.00145187      -0.00099459      -0.00030961      -0.00522091
Cu       0.00848651       5.39797336       5.42485724       0.00755780       0.00141058      -0.00138819      -0.00631849
Cu       1.81403010       3.59202483       5.42643116       0.00210866       0.00188628       0.00097766      -0.00568774
Cu       1.81521502       5.39667953       3.62094019      -0.00272551       0.00379045      -0.00223037      -0.00572717
Cu       0.01026954       3.59143087       7.23404016       0.00059208      -0.00750311      -0.00012202      -0.00533506
Cu       0.00901651       5.39850472       9.03454934       0.00375184       0.00242313      -0.00265172      -0.00453581
Cu       1.81419105       3.59208939       9.03702542      -0.00246590       0.00047492      -0.00044304      -0.00344998
Cu       1.81379064       5.39923086       7.23061701       0.00060874      -0.00223325      -0.00164613      -0.00571071
Cu       0.00995679       7.19225112       0.01246591       0.00189067       0.00097024      -0.00356286       0.01045881
Cu       0.01048186       9.01718775       1.80616358       0.00251074      -0.00063778      -0.00127930       0.08407163
Cu       1.81508148       7.20355508       1.81412569      -0.00538772       0.00124968       0.00400105      -0.00349630
Cu       1.80586557       9.01425033       0.01157992       0.00193771       0.00536346      -0.00380784       0.08413578
Cu       0.01023245       7.20574978       3.61638898       0.00413556      -0.00089216      -0.00055628      -0.00538955
Cu       0.00985943       9.00678970       5.42436236       0.00347290      -0.00189198       0.00245418      -0.00452558
Cu       1.81401360       7.20383817       5.42572850      -0.00201282      -0.00189747      -0.00410654      -0.00568574
Cu       1.81397972       9.00965286       3.61753441      -0.00349796      -0.00025832       0.00002275      -0.00354407
Cu       0.00823344       7.20604492       7.23294235       0.00370992       0.00125393       0.00084474      -0.00531967
Cu       0.01006016       9.01557085       9.04670330       0.00165998       0.00244908      -0.00206659       0.08408489
Cu       1.81305577       7.20486841       9.03598436      -0.00013155      -0.00130467       0.00438543      -0.00355033
Cu       1.81272660       9.00862848       7.23274205       0.00017728       0.00179512       0.00104540      -0.00342210
Cu       3.62905001      -0.01806708       0.01022932       0.00044494      -0.00127118      -0.00225900       0.01047117
Cu       3.61789840       1.78658820       1.81278981       0.00096768       0.00182484       0.00215546      -0.00348120
Cu       5.42439048      -0.01606873       1.81648043       0.00118178      -0.00374103       0.00292445      -0.00449529
Cu       5.42493787       1.78914922       0.00888738      -0.00211278       0.00339211      -0.00000512      -0.00457498
Cu       3.61535772      -0.01580045       3.61717980       0.00603145      -0.00292217      -0.00205375      -0.00525371
Cu       3.61881468       1.78769622       5.42659839      -0.00001863      -0.00323839       0.00320852      -0.00572973
Cu       5.42456901      -0.01646751       5.42643693       0.00111188      -0.00284377      -0.00329271      -0.00639901
Cu       5.42461297       1.78708730       3.62090694       0.00072226      -0.00361937      -0.00262351      -0.00566437
Cu       3.61577885      -0.01834225       7.23527865       0.00278682       0.00214145      -0.00669808      -0.00536290
Cu       3.61713635       1.78616133       9.03673059       0.00645295       0.00010943       0.00252669      -0.00345970
Cu       5.42497204      -0.01855328       9.03312255      -0.00188655       0.00234930       0.00324693      -0.00450399
Cu       5.42532537       1.78622793       7.23143207      -0.00342309       0.00323881       0.00092427      -0.00569193
Cu       3.61852671       3.59150111       0.00848884       0.00007902      -0.00454065       0.00176152      -0.00532557
Cu       3.62094770       5.39724437       1.81573187      -0.00150049       0.00134581       0.00091111      -0.00569684
Cu       5.42489550       3.59140821       1.81500027      -0.00063403      -0.00129269       0.00016303      -0.00567984
Cu       5.42511754       5.39754901       0.00999401       0.00337613       0.00275510      -0.00282685      -0.00632651
Cu       3.61977261       3.59145764       3.62125433      -0.00042792       0.00048125      -0.00555703      -0.00566441
Cu       3.62081595       5.39769139       5.42576839      -0.00298468       0.00105106       0.00193820      -0.00563432
Cu       5.42646847       3.59136494       5.42659096      -0.00296344       0.00049210      -0.00209909      -0.00552378
Cu       5.42632844       5.39662736       3.62165078      -0.00510694       0.00253227      -0.00621594      -0.00558774
Cu       3.61966932       3.59338322       7.23206327       0.00067899      -0.00516212      -0.00595744      -0.00567278
Cu       3.62080380       5.39986828       9.03280595       0.00098302      -0.00349153       0.00886081      -0.00568657
Cu       5.42652388       3.59275711       9.03403332      -0.00436738       0.00107566       0.00147786      -0.00571927
Cu       5.42778023       5.39863698       7.22786546      -0.00317553       0.00170152       0.00888260      -0.00563817
Cu       3.61847278       7.20502239       0.00977279      -0.00275954      -0.00085802       0.00046757      -0.00525956
Cu       3.61747809       9.00852586       1.81403649       0.00122396       0.00523846       0.00062256      -0.00348108
Cu       5.42452320       7.20368909       1.81583248       0.00108012      -0.00152421       0.00109541      -0.00569589
Cu       5.42485730       9.00532479       0.01063132       0.00020881       0.00406240      -0.00168238      -0.00452356
Cu       3.61922912       7.20313121       3.62128899       0.00422354       0.00166129      -0.00548423      -0.00570471
Cu       3.61942664       9.00922780       5.42478566       0.00022439       0.00043692       0.00305822      -0.00566513
Cu       5.42747328       7.20471240       5.42354694      -0.00833370      -0.00162732       0.00492864      -0.00554878
Cu       5.42461784       9.01089154       3.61921498       0.00139441      -0.00269080      -0.00031135      -0.00572491
Cu       3.62042274       7.20478735       7.22928051      -0.00036644      -0.00373100       0.00126239      -0.00569687
Cu       3.61711375       9.00753197       9.03677440       0.00323584       0.00464407       0.00217043      -0.00348026
Cu       5.42684996       7.20410337       9.03439191      -0.00210758      -0.00453608       0.00366311      -0.00567238
Cu       5.42616543       9.00839889       7.23066560      -0.00215393       0.00134002      -0.00074406      -0.00564048
Cu       7.22101494      -0.01668660       0.00905868       0.00197484       0.00032371       0.00252281       0.01036955
Cu       7.23171996       1.78579531       1.81367356       0.00496451      -0.00036491      -0.00170378      -0.00349264
Cu       9.04599912      -0.01533177       1.80378594      -0.00171116      -0.00285378       0.00471638       0.08403879
Cu       9.04433699       1.77945211       0.00940423       0.00068510      -0.00116673       0.00010862       0.08408791
Cu       7.23436272      -0.01581068       3.61710162      -0.00317688      -0.00291442       0.00007005      -0.00536224
Cu       7.23181394       1.78582789       5.42682916       0.00191348       0.00002755      -0.00227489      -0.00568106
Cu       9.03543563      -0.01685669       5.42613147      -0.00652117      -0.00274644       0.00127701      -0.00457861
Cu       9.03869917       1.78549496       3.61847212      -0.00608334       0.00105675      -0.00489399      -0.00340632
Cu       7.23392468      -0.01800304       7.23497273       0.00421375       0.00132460      -0.00506022      -0.00528341
Cu       7.23267565       1.78649441       9.03574175       0.00334937      -0.00336087       0.00329956      -0.00341408
Cu       9.04686742      -0.01747954       9.04575411      -0.00625756      -0.00090625       0.00384795       0.08391989
Cu       9.03863538       1.78567177       7.23459569      -0.00184970       0.00066502      -0.00566159      -0.00353034
Cu       7.23205263       3.58879560       0.00973852       0.00411649       0.00434980       0.00131182      -0.00531100
Cu       7.22918484       5.39650423       1.81585241       0.00511765      -0.00019560      -0.00123798      -0.00573540
Cu       9.03666263       3.58875050       1.81348845      -0.00295935       0.00179752       0.00270481      -0.00350495
Cu       9.03210155       5.39651632       0.01259740       0.00026139       0.00378898      -0.00702557      -0.00454387
Cu       7.23113416       3.58945529       3.62019228       0.00267256       0.00410297      -0.00175353      -0.00569810
Cu       7.23220914       5.39843485       5.42304116       0.00218149      -0.00244443       0.00544162      -0.00563574
Cu       9.03666378       3.59108798       5.42480845      -0.00121156       0.00105932       0.00467318      -0.00570403
Cu       9.03597244       5.39651004       3.61856780      -0.00453244       0.00364939      -0.00004749      -0.00573310
Cu       7.23269753       3.59201984       7.22977165      -0.00103995       0.00029686       0.00434822      -0.00565599
Cu       7.23192151       5.39843023       9.03544417      -0.00365129      -0.00096936       0.00205877      -0.00579415
Cu       9.03732056       3.59131372       9.03643899      -0.00400725      -0.00275727       0.00407888      -0.00343201
Cu       9.03579519       5.39886443       7.23041392      -0.00171487       0.00062203      -0.00214963      -0.00566605
Cu       7.23196746       7.20546972       0.01220699       0.00516631      -0.00046728      -0.00411955      -0.00531394
Cu       7.23250161       9.01146144       1.81270090      -0.00034259      -0.00249468       0.00456409      -0.00352984
Cu       9.03647833       7.20437961       1.81372609      -0.00143959       0.00224206       0.00322497      -0.00347980
Cu       9.04499799       9.01706689       0.01211063      -0.00105870       0.00073944      -0.00465959       0.08415826
Cu       7.23042678       7.20539558       3.61775688       0.00585717      -0.00315573       0.00039719      -0.00562521
Cu       7.23133017       9.00962726       5.42441837       0.00313019       0.00493133      -0.00001076      -0.00569810
Cu       9.03590125       7.20533724       5.42206009      -0.00168651      -0.00527681       0.00824428      -0.00564184
Cu       9.03726774       9.01090530       3.61588828      -0.00134293       0.00188688       0.00168441      -0.00346835
Cu       7.23273471       7.20454298       7.22979357       0.00025133      -0.00058273       0.00251266      -0.00568241
Cu       7.23354998       9.00890358       9.03821740       0.00020834       0.00185782      -0.00175668      -0.00345910
Cu       9.03663165       7.20566170       9.03931356      -0.00139220      -0.00462774      -0.00365959      -0.00351163
Cu       9.03716567       9.00930582       7.23334786       0.00159432       0.00191771      -0.00125436      -0.00350101
